Created via AnalysisTools v4.0 (https://github.com/KaGaSi/AnalysisTools)

      4800 atoms
      1080 bonds
         0 angles
         0 dihedrals
         0 impropers

         3 atom types
         1 bond types

0.000 10.000 xlo xhi
0.000 10.000 ylo yhi
0.000 16.000 zlo zhi

Masses

    1 1.000000 # A
    2 1.000000 # B
    3 1.000000 # W

Bond Coeffs

    1 50.000000 0.500000

Atoms # full

      1     1     1        0.000000        5.055235        5.067363        0.357104 # A4B6
      2     1     1        0.000000        5.555235        5.067363        0.357104 # A4B6
      3     1     1        0.000000        6.055235        5.067363        0.357104 # A4B6
      4     1     1        0.000000        6.405235        5.417363        0.357104 # A4B6
      5     1     2        0.000000        6.755235        5.067363        0.357104 # A4B6
      6     1     2        0.000000        7.105235        5.417363        0.357104 # A4B6
      7     1     2        0.000000        7.455235        5.067363        0.357104 # A4B6
      8     1     2        0.000000        7.805235        5.417363        0.357104 # A4B6
      9     1     2        0.000000        7.805235        5.917363        0.357104 # A4B6
     10     1     2        0.000000        7.305235        5.917363        0.357104 # A4B6
     11     2     1        0.000000        4.933744        5.015373        0.408252 # A4B6
     12     2     1        0.000000        5.183744        4.582360        0.408252 # A4B6
     13     2     1        0.000000        5.433744        4.149348        0.408252 # A4B6
     14     2     1        0.000000        5.911853        4.021239        0.408252 # A4B6
     15     2     2        0.000000        5.783744        3.543130        0.408252 # A4B6
     16     2     2        0.000000        6.261853        3.415021        0.408252 # A4B6
     17     2     2        0.000000        6.133744        2.936912        0.408252 # A4B6
     18     2     2        0.000000        6.611853        2.808803        0.408252 # A4B6
     19     2     2        0.000000        7.044866        3.058803        0.408252 # A4B6
     20     2     2        0.000000        6.794866        3.491816        0.408252 # A4B6
     21     3     1        0.000000        4.933744        5.015373        0.408252 # A4B6
     22     3     1        0.000000        4.683744        4.582360        0.408252 # A4B6
     23     3     1        0.000000        4.433744        4.149348        0.408252 # A4B6
     24     3     1        0.000000        4.561853        3.671239        0.408252 # A4B6
     25     3     2        0.000000        4.083744        3.543130        0.408252 # A4B6
     26     3     2        0.000000        4.211853        3.065021        0.408252 # A4B6
     27     3     2        0.000000        3.733744        2.936912        0.408252 # A4B6
     28     3     2        0.000000        3.861853        2.458803        0.408252 # A4B6
     29     3     2        0.000000        4.294866        2.208803        0.408252 # A4B6
     30     3     2        0.000000        4.544866        2.641816        0.408252 # A4B6
     31     4     1        0.000000        4.933744        5.015373        0.408252 # A4B6
     32     4     1        0.000000        4.433744        5.015373        0.408252 # A4B6
     33     4     1        0.000000        3.933744        5.015373        0.408252 # A4B6
     34     4     1        0.000000        3.583744        4.665373        0.408252 # A4B6
     35     4     2        0.000000        3.233744        5.015373        0.408252 # A4B6
     36     4     2        0.000000        2.883744        4.665373        0.408252 # A4B6
     37     4     2        0.000000        2.533744        5.015373        0.408252 # A4B6
     38     4     2        0.000000        2.183744        4.665373        0.408252 # A4B6
     39     4     2        0.000000        2.183744        4.165373        0.408252 # A4B6
     40     4     2        0.000000        2.683744        4.165373        0.408252 # A4B6
     41     5     1        0.000000        4.933744        5.015373        0.408252 # A4B6
     42     5     1        0.000000        4.683744        5.448386        0.408252 # A4B6
     43     5     1        0.000000        4.433744        5.881399        0.408252 # A4B6
     44     5     1        0.000000        3.955635        6.009507        0.408252 # A4B6
     45     5     2        0.000000        4.083744        6.487616        0.408252 # A4B6
     46     5     2        0.000000        3.605635        6.615725        0.408252 # A4B6
     47     5     2        0.000000        3.733744        7.093834        0.408252 # A4B6
     48     5     2        0.000000        3.255635        7.221943        0.408252 # A4B6
     49     5     2        0.000000        2.822622        6.971943        0.408252 # A4B6
     50     5     2        0.000000        3.072622        6.538930        0.408252 # A4B6
     51     6     1        0.000000        4.933744        5.015373        0.408252 # A4B6
     52     6     1        0.000000        5.183744        5.448386        0.408252 # A4B6
     53     6     1        0.000000        5.433744        5.881399        0.408252 # A4B6
     54     6     1        0.000000        5.305635        6.359507        0.408252 # A4B6
     55     6     2        0.000000        5.783744        6.487616        0.408252 # A4B6
     56     6     2        0.000000        5.655635        6.965725        0.408252 # A4B6
     57     6     2        0.000000        6.133744        7.093834        0.408252 # A4B6
     58     6     2        0.000000        6.005635        7.571943        0.408252 # A4B6
     59     6     2        0.000000        5.572622        7.821943        0.408252 # A4B6
     60     6     2        0.000000        5.322622        7.388930        0.408252 # A4B6
     61     7     1        0.000000        4.933744        5.015373        1.208252 # A4B6
     62     7     1        0.000000        5.386898        4.804064        1.208252 # A4B6
     63     7     1        0.000000        5.840052        4.592755        1.208252 # A4B6
     64     7     1        0.000000        6.305176        4.762046        1.208252 # A4B6
     65     7     2        0.000000        6.474467        4.296922        1.208252 # A4B6
     66     7     2        0.000000        6.939591        4.466213        1.208252 # A4B6
     67     7     2        0.000000        7.108883        4.001089        1.208252 # A4B6
     68     7     2        0.000000        7.574007        4.170381        1.208252 # A4B6
     69     7     2        0.000000        7.785316        4.623535        1.208252 # A4B6
     70     7     2        0.000000        7.332162        4.834844        1.208252 # A4B6
     71     8     1        0.000000        4.933744        5.015373        1.208252 # A4B6
     72     8     1        0.000000        4.977322        4.517276        1.208252 # A4B6
     73     8     1        0.000000        5.020900        4.019178        1.208252 # A4B6
     74     8     1        0.000000        5.400072        3.701015        1.208252 # A4B6
     75     8     2        0.000000        5.081909        3.321842        1.208252 # A4B6
     76     8     2        0.000000        5.461081        3.003679        1.208252 # A4B6
     77     8     2        0.000000        5.142918        2.624506        1.208252 # A4B6
     78     8     2        0.000000        5.522090        2.306342        1.208252 # A4B6
     79     8     2        0.000000        6.020188        2.349920        1.208252 # A4B6
     80     8     2        0.000000        5.976610        2.848017        1.208252 # A4B6
     81     9     1        0.000000        4.933744        5.015373        1.208252 # A4B6
     82     9     1        0.000000        4.524168        4.728585        1.208252 # A4B6
     83     9     1        0.000000        4.114592        4.441797        1.208252 # A4B6
     84     9     1        0.000000        4.028641        3.954342        1.208252 # A4B6
     85     9     2        0.000000        3.541186        4.040293        1.208252 # A4B6
     86     9     2        0.000000        3.455234        3.552838        1.208252 # A4B6
     87     9     2        0.000000        2.967779        3.638790        1.208252 # A4B6
     88     9     2        0.000000        2.881828        3.151335        1.208252 # A4B6
     89     9     2        0.000000        3.168616        2.741759        1.208252 # A4B6
     90     9     2        0.000000        3.578192        3.028547        1.208252 # A4B6
     91    10     1        0.000000        4.933744        5.015373        1.208252 # A4B6
     92    10     1        0.000000        4.480590        5.226682        1.208252 # A4B6
     93    10     1        0.000000        4.027436        5.437991        1.208252 # A4B6
     94    10     1        0.000000        3.562312        5.268700        1.208252 # A4B6
     95    10     2        0.000000        3.393021        5.733824        1.208252 # A4B6
     96    10     2        0.000000        2.927897        5.564533        1.208252 # A4B6
     97    10     2        0.000000        2.758605        6.029657        1.208252 # A4B6
     98    10     2        0.000000        2.293481        5.860366        1.208252 # A4B6
     99    10     2        0.000000        2.082172        5.407212        1.208252 # A4B6
    100    10     2        0.000000        2.535326        5.195903        1.208252 # A4B6
    101    11     1        0.000000        4.933744        5.015373        1.208252 # A4B6
    102    11     1        0.000000        4.890166        5.513471        1.208252 # A4B6
    103    11     1        0.000000        4.846588        6.011568        1.208252 # A4B6
    104    11     1        0.000000        4.467416        6.329731        1.208252 # A4B6
    105    11     2        0.000000        4.785579        6.708904        1.208252 # A4B6
    106    11     2        0.000000        4.406407        7.027068        1.208252 # A4B6
    107    11     2        0.000000        4.724570        7.406240        1.208252 # A4B6
    108    11     2        0.000000        4.345398        7.724404        1.208252 # A4B6
    109    11     2        0.000000        3.847300        7.680826        1.208252 # A4B6
    110    11     2        0.000000        3.890878        7.182729        1.208252 # A4B6
    111    12     1        0.000000        4.933744        5.015373        1.208252 # A4B6
    112    12     1        0.000000        5.343320        5.302161        1.208252 # A4B6
    113    12     1        0.000000        5.752896        5.588950        1.208252 # A4B6
    114    12     1        0.000000        5.838848        6.076405        1.208252 # A4B6
    115    12     2        0.000000        6.326302        5.990453        1.208252 # A4B6
    116    12     2        0.000000        6.412254        6.477908        1.208252 # A4B6
    117    12     2        0.000000        6.899709        6.391957        1.208252 # A4B6
    118    12     2        0.000000        6.985660        6.879412        1.208252 # A4B6
    119    12     2        0.000000        6.698872        7.288988        1.208252 # A4B6
    120    12     2        0.000000        6.289296        7.002199        1.208252 # A4B6
    121    13     1        0.000000        4.933744        5.015373        2.008252 # A4B6
    122    13     1        0.000000        5.255138        4.632351        2.008252 # A4B6
    123    13     1        0.000000        5.576532        4.249329        2.008252 # A4B6
    124    13     1        0.000000        6.069623        4.206189        2.008252 # A4B6
    125    13     2        0.000000        6.026483        3.713098        2.008252 # A4B6
    126    13     2        0.000000        6.519574        3.669958        2.008252 # A4B6
    127    13     2        0.000000        6.476434        3.176866        2.008252 # A4B6
    128    13     2        0.000000        6.969525        3.133727        2.008252 # A4B6
    129    13     2        0.000000        7.352548        3.455120        2.008252 # A4B6
    130    13     2        0.000000        7.031154        3.838143        2.008252 # A4B6
    131    14     1        0.000000        4.933744        5.015373        2.008252 # A4B6
    132    14     1        0.000000        4.762734        4.545527        2.008252 # A4B6
    133    14     1        0.000000        4.591724        4.075681        2.008252 # A4B6
    134    14     1        0.000000        4.800909        3.627081        2.008252 # A4B6
    135    14     2        0.000000        4.352310        3.417896        2.008252 # A4B6
    136    14     2        0.000000        4.561495        2.969296        2.008252 # A4B6
    137    14     2        0.000000        4.112896        2.760111        2.008252 # A4B6
    138    14     2        0.000000        4.322081        2.311511        2.008252 # A4B6
    139    14     2        0.000000        4.791927        2.140501        2.008252 # A4B6
    140    14     2        0.000000        4.962937        2.610348        2.008252 # A4B6
    141    15     1        0.000000        4.933744        5.015373        2.008252 # A4B6
    142    15     1        0.000000        4.441340        4.928549        2.008252 # A4B6
    143    15     1        0.000000        3.948936        4.841725        2.008252 # A4B6
    144    15     1        0.000000        3.665030        4.436265        2.008252 # A4B6
    145    15     2        0.000000        3.259571        4.720171        2.008252 # A4B6
    146    15     2        0.000000        2.975665        4.314712        2.008252 # A4B6
    147    15     2        0.000000        2.570205        4.598618        2.008252 # A4B6
    148    15     2        0.000000        2.286300        4.193158        2.008252 # A4B6
    149    15     2        0.000000        2.373124        3.700754        2.008252 # A4B6
    150    15     2        0.000000        2.865528        3.787578        2.008252 # A4B6
    151    16     1        0.000000        4.933744        5.015373        2.008252 # A4B6
    152    16     1        0.000000        4.612350        5.398395        2.008252 # A4B6
    153    16     1        0.000000        4.290956        5.781418        2.008252 # A4B6
    154    16     1        0.000000        3.797865        5.824557        2.008252 # A4B6
    155    16     2        0.000000        3.841005        6.317649        2.008252 # A4B6
    156    16     2        0.000000        3.347914        6.360789        2.008252 # A4B6
    157    16     2        0.000000        3.391054        6.853880        2.008252 # A4B6
    158    16     2        0.000000        2.897963        6.897020        2.008252 # A4B6
    159    16     2        0.000000        2.514940        6.575626        2.008252 # A4B6
    160    16     2        0.000000        2.836334        6.192604        2.008252 # A4B6
    161    17     1        0.000000        4.933744        5.015373        2.008252 # A4B6
    162    17     1        0.000000        5.104754        5.485219        2.008252 # A4B6
    163    17     1        0.000000        5.275764        5.955066        2.008252 # A4B6
    164    17     1        0.000000        5.066579        6.403665        2.008252 # A4B6
    165    17     2        0.000000        5.515178        6.612851        2.008252 # A4B6
    166    17     2        0.000000        5.305993        7.061450        2.008252 # A4B6
    167    17     2        0.000000        5.754592        7.270635        2.008252 # A4B6
    168    17     2        0.000000        5.545407        7.719235        2.008252 # A4B6
    169    17     2        0.000000        5.075561        7.890245        2.008252 # A4B6
    170    17     2        0.000000        4.904551        7.420399        2.008252 # A4B6
    171    18     1        0.000000        4.933744        5.015373        2.008252 # A4B6
    172    18     1        0.000000        5.426148        5.102197        2.008252 # A4B6
    173    18     1        0.000000        5.918552        5.189021        2.008252 # A4B6
    174    18     1        0.000000        6.202458        5.594481        2.008252 # A4B6
    175    18     2        0.000000        6.607917        5.310575        2.008252 # A4B6
    176    18     2        0.000000        6.891823        5.716035        2.008252 # A4B6
    177    18     2        0.000000        7.297283        5.432129        2.008252 # A4B6
    178    18     2        0.000000        7.581188        5.837588        2.008252 # A4B6
    179    18     2        0.000000        7.494364        6.329992        2.008252 # A4B6
    180    18     2        0.000000        7.001961        6.243168        2.008252 # A4B6
    181    19     1        0.000000        4.933744        5.015373        2.808252 # A4B6
    182    19     1        0.000000        5.063154        4.532410        2.808252 # A4B6
    183    19     1        0.000000        5.192563        4.049447        2.808252 # A4B6
    184    19     1        0.000000        5.621224        3.801960        2.808252 # A4B6
    185    19     2        0.000000        5.373736        3.373299        2.808252 # A4B6
    186    19     2        0.000000        5.802397        3.125812        2.808252 # A4B6
    187    19     2        0.000000        5.554910        2.697151        2.808252 # A4B6
    188    19     2        0.000000        5.983570        2.449664        2.808252 # A4B6
    189    19     2        0.000000        6.466533        2.579073        2.808252 # A4B6
    190    19     2        0.000000        6.337124        3.062036        2.808252 # A4B6
    191    20     1        0.000000        4.933744        5.015373        2.808252 # A4B6
    192    20     1        0.000000        4.580191        4.661820        2.808252 # A4B6
    193    20     1        0.000000        4.226637        4.308266        2.808252 # A4B6
    194    20     1        0.000000        4.226637        3.813292        2.808252 # A4B6
    195    20     2        0.000000        3.731662        3.813292        2.808252 # A4B6
    196    20     2        0.000000        3.731662        3.318317        2.808252 # A4B6
    197    20     2        0.000000        3.236688        3.318317        2.808252 # A4B6
    198    20     2        0.000000        3.236688        2.823342        2.808252 # A4B6
    199    20     2        0.000000        3.590241        2.469789        2.808252 # A4B6
    200    20     2        0.000000        3.943795        2.823342        2.808252 # A4B6
    201    21     1        0.000000        4.933744        5.015373        2.808252 # A4B6
    202    21     1        0.000000        4.450781        5.144783        2.808252 # A4B6
    203    21     1        0.000000        3.967818        5.274192        2.808252 # A4B6
    204    21     1        0.000000        3.539157        5.026705        2.808252 # A4B6
    205    21     2        0.000000        3.291670        5.455366        2.808252 # A4B6
    206    21     2        0.000000        2.863009        5.207878        2.808252 # A4B6
    207    21     2        0.000000        2.615522        5.636539        2.808252 # A4B6
    208    21     2        0.000000        2.186861        5.389051        2.808252 # A4B6
    209    21     2        0.000000        2.057452        4.906089        2.808252 # A4B6
    210    21     2        0.000000        2.540415        4.776679        2.808252 # A4B6
    211    22     1        0.000000        4.933744        5.015373        2.808252 # A4B6
    212    22     1        0.000000        4.804334        5.498336        2.808252 # A4B6
    213    22     1        0.000000        4.674925        5.981299        2.808252 # A4B6
    214    22     1        0.000000        4.246264        6.228786        2.808252 # A4B6
    215    22     2        0.000000        4.493752        6.657447        2.808252 # A4B6
    216    22     2        0.000000        4.065091        6.904934        2.808252 # A4B6
    217    22     2        0.000000        4.312578        7.333595        2.808252 # A4B6
    218    22     2        0.000000        3.883918        7.581083        2.808252 # A4B6
    219    22     2        0.000000        3.400955        7.451673        2.808252 # A4B6
    220    22     2        0.000000        3.530364        6.968710        2.808252 # A4B6
    221    23     1        0.000000        4.933744        5.015373        2.808252 # A4B6
    222    23     1        0.000000        5.287297        5.368927        2.808252 # A4B6
    223    23     1        0.000000        5.640851        5.722480        2.808252 # A4B6
    224    23     1        0.000000        5.640851        6.217455        2.808252 # A4B6
    225    23     2        0.000000        6.135826        6.217455        2.808252 # A4B6
    226    23     2        0.000000        6.135826        6.712429        2.808252 # A4B6
    227    23     2        0.000000        6.630800        6.712429        2.808252 # A4B6
    228    23     2        0.000000        6.630800        7.207404        2.808252 # A4B6
    229    23     2        0.000000        6.277247        7.560958        2.808252 # A4B6
    230    23     2        0.000000        5.923694        7.207404        2.808252 # A4B6
    231    24     1        0.000000        4.933744        5.015373        2.808252 # A4B6
    232    24     1        0.000000        5.416707        4.885964        2.808252 # A4B6
    233    24     1        0.000000        5.899670        4.756554        2.808252 # A4B6
    234    24     1        0.000000        6.328331        5.004041        2.808252 # A4B6
    235    24     2        0.000000        6.575818        4.575381        2.808252 # A4B6
    236    24     2        0.000000        7.004479        4.822868        2.808252 # A4B6
    237    24     2        0.000000        7.251966        4.394207        2.808252 # A4B6
    238    24     2        0.000000        7.680627        4.641695        2.808252 # A4B6
    239    24     2        0.000000        7.810036        5.124658        2.808252 # A4B6
    240    24     2        0.000000        7.327073        5.254067        2.808252 # A4B6
    241    25     1        0.000000        4.933744        5.015373        3.608252 # A4B6
    242    25     1        0.000000        4.846920        4.522969        3.608252 # A4B6
    243    25     1        0.000000        4.760096        4.030565        3.608252 # A4B6
    244    25     1        0.000000        5.044002        3.625106        3.608252 # A4B6
    245    25     2        0.000000        4.638542        3.341200        3.608252 # A4B6
    246    25     2        0.000000        4.922448        2.935740        3.608252 # A4B6
    247    25     2        0.000000        4.516988        2.651835        3.608252 # A4B6
    248    25     2        0.000000        4.800894        2.246375        3.608252 # A4B6
    249    25     2        0.000000        5.293298        2.159551        3.608252 # A4B6
    250    25     2        0.000000        5.380122        2.651955        3.608252 # A4B6
    251    26     1        0.000000        4.933744        5.015373        3.608252 # A4B6
    252    26     1        0.000000        4.463898        4.844363        3.608252 # A4B6
    253    26     1        0.000000        3.994051        4.673353        3.608252 # A4B6
    254    26     1        0.000000        3.784866        4.224754        3.608252 # A4B6
    255    26     2        0.000000        3.336267        4.433939        3.608252 # A4B6
    256    26     2        0.000000        3.127081        3.985339        3.608252 # A4B6
    257    26     2        0.000000        2.678482        4.194525        3.608252 # A4B6
    258    26     2        0.000000        2.469296        3.745925        3.608252 # A4B6
    259    26     2        0.000000        2.640306        3.276079        3.608252 # A4B6
    260    26     2        0.000000        3.110153        3.447089        3.608252 # A4B6
    261    27     1        0.000000        4.933744        5.015373        3.608252 # A4B6
    262    27     1        0.000000        4.550722        5.336767        3.608252 # A4B6
    263    27     1        0.000000        4.167700        5.658161        3.608252 # A4B6
    264    27     1        0.000000        3.674608        5.615021        3.608252 # A4B6
    265    27     2        0.000000        3.631468        6.108112        3.608252 # A4B6
    266    27     2        0.000000        3.138377        6.064972        3.608252 # A4B6
    267    27     2        0.000000        3.095237        6.558063        3.608252 # A4B6
    268    27     2        0.000000        2.602146        6.514924        3.608252 # A4B6
    269    27     2        0.000000        2.280752        6.131901        3.608252 # A4B6
    270    27     2        0.000000        2.663775        5.810508        3.608252 # A4B6
    271    28     1        0.000000        4.933744        5.015373        3.608252 # A4B6
    272    28     1        0.000000        5.020568        5.507777        3.608252 # A4B6
    273    28     1        0.000000        5.107392        6.000181        3.608252 # A4B6
    274    28     1        0.000000        4.823486        6.405640        3.608252 # A4B6
    275    28     2        0.000000        5.228946        6.689546        3.608252 # A4B6
    276    28     2        0.000000        4.945040        7.095006        3.608252 # A4B6
    277    28     2        0.000000        5.350500        7.378912        3.608252 # A4B6
    278    28     2        0.000000        5.066594        7.784371        3.608252 # A4B6
    279    28     2        0.000000        4.574190        7.871195        3.608252 # A4B6
    280    28     2        0.000000        4.487366        7.378792        3.608252 # A4B6
    281    29     1        0.000000        4.933744        5.015373        3.608252 # A4B6
    282    29     1        0.000000        5.403590        5.186383        3.608252 # A4B6
    283    29     1        0.000000        5.873437        5.357393        3.608252 # A4B6
    284    29     1        0.000000        6.082622        5.805993        3.608252 # A4B6
    285    29     2        0.000000        6.531221        5.596807        3.608252 # A4B6
    286    29     2        0.000000        6.740407        6.045407        3.608252 # A4B6
    287    29     2        0.000000        7.189006        5.836221        3.608252 # A4B6
    288    29     2        0.000000        7.398192        6.284821        3.608252 # A4B6
    289    29     2        0.000000        7.227182        6.754667        3.608252 # A4B6
    290    29     2        0.000000        6.757335        6.583657        3.608252 # A4B6
    291    30     1        0.000000        4.933744        5.015373        3.608252 # A4B6
    292    30     1        0.000000        5.316766        4.693979        3.608252 # A4B6
    293    30     1        0.000000        5.699788        4.372586        3.608252 # A4B6
    294    30     1        0.000000        6.192880        4.415725        3.608252 # A4B6
    295    30     2        0.000000        6.236020        3.922634        3.608252 # A4B6
    296    30     2        0.000000        6.729111        3.965774        3.608252 # A4B6
    297    30     2        0.000000        6.772251        3.472683        3.608252 # A4B6
    298    30     2        0.000000        7.265342        3.515823        3.608252 # A4B6
    299    30     2        0.000000        7.586736        3.898845        3.608252 # A4B6
    300    30     2        0.000000        7.203713        4.220239        3.608252 # A4B6
    301    31     1        0.000000        4.933744        5.015373        4.408252 # A4B6
    302    31     1        0.000000        4.646956        4.605797        4.408252 # A4B6
    303    31     1        0.000000        4.360168        4.196221        4.408252 # A4B6
    304    31     1        0.000000        4.446119        3.708766        4.408252 # A4B6
    305    31     2        0.000000        3.958664        3.622815        4.408252 # A4B6
    306    31     2        0.000000        4.044616        3.135360        4.408252 # A4B6
    307    31     2        0.000000        3.557161        3.049408        4.408252 # A4B6
    308    31     2        0.000000        3.643112        2.561953        4.408252 # A4B6
    309    31     2        0.000000        4.052688        2.275165        4.408252 # A4B6
    310    31     2        0.000000        4.339476        2.684741        4.408252 # A4B6
    311    32     1        0.000000        4.933744        5.015373        4.408252 # A4B6
    312    32     1        0.000000        4.435647        5.058951        4.408252 # A4B6
    313    32     1        0.000000        3.937549        5.102529        4.408252 # A4B6
    314    32     1        0.000000        3.558377        4.784365        4.408252 # A4B6
    315    32     2        0.000000        3.240213        5.163538        4.408252 # A4B6
    316    32     2        0.000000        2.861040        4.845374        4.408252 # A4B6
    317    32     2        0.000000        2.542877        5.224547        4.408252 # A4B6
    318    32     2        0.000000        2.163704        4.906383        4.408252 # A4B6
    319    32     2        0.000000        2.120126        4.408286        4.408252 # A4B6
    320    32     2        0.000000        2.618224        4.364708        4.408252 # A4B6
    321    33     1        0.000000        4.933744        5.015373        4.408252 # A4B6
    322    33     1        0.000000        4.722435        5.468527        4.408252 # A4B6
    323    33     1        0.000000        4.511126        5.921681        4.408252 # A4B6
    324    33     1        0.000000        4.046002        6.090972        4.408252 # A4B6
    325    33     2        0.000000        4.215293        6.556096        4.408252 # A4B6