ITEM: TIMESTEP
1
ITEM: NUMBER OF ATOMS
610
ITEM: BOX BOUNDS pp pp pp
 2.000000 32.000000
12.000000 32.000000
0.000000 25.000000
ITEM: ATOMS id element x y z
  1  A   7.1450  24.4090  19.9440
  2  A   7.7640  24.3250  20.1930
  3  A   8.1510  24.3880  19.8920
  4  A   7.8640  23.8230  20.4180
  5  A   8.0660  23.1020  20.2510
  6  B   8.0810  22.5020  19.7800
  7  B   8.3480  22.2120  19.8130
  8  B   8.9810  22.8440  19.5560
  9  B   8.2230  21.4710  19.8210
 10  B   7.9230  21.3820  20.3640
 11  A  14.8340  21.2550  22.4930
 12  A  14.3370  21.1390  22.8010
 13  A  13.6810  21.5130  22.8250
 14  A  12.6260  21.8750  23.0760
 15  A  11.3440  20.7650  22.6740
 16  B  10.7470  21.4950  21.2040
 17  B  10.6180  21.7750  21.4730
 18  B   9.9820  21.5690  21.3780
 19  B  10.2040  21.5270  20.6580
 20  B   9.4110  21.5090  21.8160
 21  A   8.6620  20.2000  22.8700
 22  A   8.4330  21.0760  22.4710
 23  A   8.7070  21.7860  23.7100
 24  A   8.5330  21.3410  23.7440
 25  A   9.2110  21.6860  22.7130
 26  B   9.9280  21.7990  22.2940
 27  B  10.4380  21.9270  22.0210
 28  B   9.7080  22.5150  22.2090
 29  B  10.6210  23.3250  21.6950
 30  B  10.4680  22.2690  21.6350
 31  A   6.6780  18.3210  20.1700
 32  A   7.5540  17.9130  20.0770
 33  A   8.2660  17.8500  19.0740
 34  A   8.3360  17.3530  19.6560
 35  A   8.1610  18.1290  20.2150
 36  B   8.6400  18.1940  20.8240
 37  B   8.1320  18.2580  21.6980
 38  B   7.5060  18.3730  22.2070
 39  B   8.0400  18.7510  22.6430
 40  B   8.0920  19.2440  22.3320
 41  A  13.0920  21.3590  17.5100
 42  A  13.9910  22.3620  17.3410
 43  A  13.3230  22.4230  17.8720
 44  A  12.9860  23.1110  18.4740
 45  A  12.4760  22.4780  18.1510
 46  B  12.1270  22.3570  19.3040
 47  B  11.9290  22.0980  20.3030
 48  B  12.4980  22.5890  20.3060
 49  B  12.2960  23.2280  19.5000
 50  B  12.2080  23.0100  19.9250
 51  A  11.4860  21.1410  17.8810
 52  A  10.9370  20.8620  17.4520
 53  A  11.7070  20.4680  17.3810
 54  A  10.5030  21.6510  17.6640
 55  A  11.7340  20.9360  18.1800
 56  B  11.0250  20.7970  18.8790
 57  B   9.4190  20.9530  18.7150
 58  B   9.0570  21.6020  20.1640
 59  B   8.9160  21.0950  19.3780
 60  B   9.1230  20.5320  18.7340
 61  A  15.8430  23.4580  20.9470
 62  A  15.5850  23.8610  20.9830
 63  A  15.0440  23.2920  21.6000
 64  A  14.4780  23.9580  22.0810
 65  A  14.9340  24.1620  21.4770
 66  B  14.5180  23.7080  21.2670
 67  B  13.8440  23.7510  21.4850
 68  B  13.9440  23.2130  22.0180
 69  B  13.0270  23.5670  21.8830
 70  B  12.9950  23.5320  21.3370
 71  A  12.0890  17.6100  20.1400
 72  A  11.9430  18.3330  20.7780
 73  A  11.4150  18.7310  21.3220
 74  A  11.8340  19.6610  21.4340
 75  A  12.3450  20.0480  21.9540
 76  B  11.9400  21.1210  22.2580
 77  B  11.8260  21.1800  21.6150
 78  B  11.1790  21.1990  21.5150
 79  B  11.4830  21.5770  21.3410
 80  B  11.4260  21.1030  20.8370
 81  A   7.2070  20.7980  17.0340
 82  A   7.6470  20.3410  17.0290
 83  A   7.7350  20.3240  17.6070
 84  A   8.2410  21.0170  17.1600
 85  A   8.9950  20.8340  17.3060
 86  B   9.0170  20.3040  18.0280
 87  B   9.6860  20.5860  17.8850
 88  B  10.1740  21.4760  18.4440
 89  B   9.8590  22.4810  18.8840
 90  B   9.7810  21.7130  18.7920
 91  A  10.6190  26.8090  20.7250
 92  A  10.8710  25.6130  21.7580
 93  A  11.2780  25.2550  20.6770
 94  A  11.3780  25.8260  21.2820
 95  A  11.8120  25.6730  21.3680
 96  B  12.3750  25.2560  21.5710
 97  B  12.6480  25.0420  22.1200
 98  B  12.5220  24.9770  21.6620
 99  B  12.1830  25.3000  20.7180
100  B  12.4400  25.5580  21.0180
101  A  11.5990  23.7050  18.2140
102  A  12.0080  24.1020  18.6720
103  A  11.7190  24.6320  18.5720
104  A  10.8430  24.6010  19.1520
105  A  11.7050  23.7230  19.8570
106  B  11.3100  23.5170  19.6570
107  B  11.3930  22.9460  19.8390
108  B  11.1270  22.8180  20.3150
109  B  11.3330  22.1040  21.2500
110  B  12.5600  22.5090  20.8380
111  A  12.6470  17.3190  19.5920
112  A  12.5580  17.0800  20.0760
113  A  11.3190  18.2190  19.5440
114  A  11.2200  18.1400  20.0110
115  A  11.1790  18.8090  20.3720
116  B  10.1460  19.0710  19.5530
117  B   9.8550  19.0250  20.1630
118  B   9.7980  20.0010  20.6210
119  B  10.2290  19.6500  20.1810
120  B  10.1820  20.6050  19.5810
121  A   6.8660  20.6860  20.1910
122  A   6.4950  20.1710  20.2700
123  A   7.1020  19.9480  19.6030
124  A   7.3950  19.2690  19.7910
125  A   7.9780  19.0720  19.2220
126  B   8.0440  19.9730  19.3930
127  B   8.3610  19.6380  19.0210
128  B   8.7000  19.8150  19.5760
129  B   8.9280  21.1470  20.3150
130  B   9.3060  20.5140  19.6580
131  A  10.7550  21.3720  23.0100
132  A   9.8560  21.8610  22.9510
133  A   9.3540  22.3970  22.9800
134  A   9.9250  22.6970  22.9680
135  A   9.4930  23.4030  22.3050
136  B  10.0610  23.9570  21.4780
137  B  10.5030  24.1480  20.9860
138  B  10.1590  23.9480  20.4200
139  B  10.3370  23.2680  20.9150
140  B  11.0780  24.5820  20.5440
141  A  10.8390  24.0150  23.0920
142  A  10.7200  24.3470  22.6080
143  A   9.8200  24.5980  23.0160
144  A   9.2500  24.0580  23.0360
145  A   8.9600  23.8420  22.8150
146  B   9.0080  23.8270  21.7340
147  B   9.9600  23.4510  21.7820
148  B  10.3280  22.9210  21.5740
149  B   9.6530  23.1630  20.6940
150  B   9.8850  22.6120  20.2580
151  A   5.5090  19.0560  18.6360
152  A   5.5280  18.5290  18.9890
153  A   5.7460  17.9780  18.6090
154  A   5.8660  18.6920  20.1420
155  A   6.5870  18.5640  20.6990
156  B   6.8300  19.4380  20.6210
157  B   7.6030  19.9320  21.0800
158  B   8.4630  19.8120  21.4830
159  B   8.4120  20.6000  21.5490
160  B   8.3350  19.6530  20.3730
161  A  14.0130  26.1620  21.7410
162  A  13.7720  26.1670  21.6350
163  A  14.4060  25.8590  21.2230
164  A  14.0730  25.5380  20.5580
165  A  13.0510  25.6670  20.6490
166  B  12.7890  25.0980  20.7420
167  B  12.8260  24.7460  20.6180
168  B  11.8440  24.3170  21.0110
169  B  12.6210  23.9630  20.9290
170  B  12.1430  24.0600  21.4980
171  A   7.4280  20.0440  22.6310
172  A   7.9160  20.4350  22.9130
173  A   7.8100  19.9920  23.0540
174  A   8.3470  20.4550  23.2470
175  A   7.2460  19.7240  22.0490
176  B   7.8640  20.0360  21.4170
177  B   7.3460  19.0970  20.8660
178  B   8.1610  18.6390  21.1310
179  B   9.0880  19.0440  20.8220
180  B   8.7940  19.7310  20.2630
181  A  10.3930  20.4470  24.6830
182  A  10.0920  21.1240  23.8230
183  A   9.9100  20.5540  23.7140
184  A  10.4110  20.4510  23.4950
185  A  10.4180  20.0350  21.8840
186  B   9.8130  20.4710  20.9430
187  B  10.2940  20.8890  20.5770
188  B  10.7980  20.4130  20.0320
189  B  10.8860  20.0650  19.5520
190  B  10.3170  20.8160  18.7850
191  A   6.0120  21.8100  22.9640
192  A   6.6380  22.4770  22.3960
193  A   6.8980  21.6520  21.7170
194  A   7.0500  21.9550  22.7200
195  A   7.5980  22.8850  22.4990
196  B   8.5680  22.6440  21.7210
197  B   9.3940  22.7530  21.1940
198  B   8.5640  21.9020  21.8680
199  B   8.4190  22.3210  20.8660
200  B   8.9100  22.1070  21.3230
201  A  12.7860  24.7850  25.4820
202  A  12.1010  24.8680  24.5270
203  A  11.6430  24.1960  24.2190
204  A  11.8370  23.3050  23.9750
205  A  11.9360  22.6680  23.3430
206  B  11.9330  23.1550  22.7020
207  B  11.5970  22.5880  22.1460
208  B  11.5260  23.0680  21.3160
209  B  11.6630  24.1800  21.6800
210  B  11.2780  24.2540  22.1930
211  A  10.3400  16.8360  22.2050
212  A  10.5220  17.6760  23.4010
213  A  10.3280  18.3570  24.0490
214  A   9.8120  18.8460  23.5560
215  A  10.3870  18.8590  23.3160
216  B  10.9260  19.0870  23.9480
217  B  11.8090  20.6460  23.3210
218  B  11.6240  20.9790  23.4230
219  B  11.7120  21.4980  22.6200
220  B  11.3910  21.5260  22.2780
221  A   9.3210  24.1670  24.0050
222  A   9.6090  25.0270  23.5510
223  A   8.7590  24.7130  22.5300
224  A   8.7790  24.3970  21.5320
225  A   9.6420  24.9330  20.8330
226  B   9.9150  24.1070  21.0750
227  B  11.0540  24.2470  20.9900
228  B  10.9550  24.6950  21.6550
229  B  10.4640  24.1680  21.7330
230  B  11.2180  24.5070  21.2040
231  A  11.0520  26.8960  23.7320
232  A  10.9950  26.2550  23.9730
233  A  12.3640  26.3020  23.6280
234  A  12.3060  25.7580  23.5890
235  A  13.0370  25.7630  23.1620
236  B  12.7260  25.0530  23.4050
237  B  12.6430  23.8200  22.4790
238  B  12.5140  24.1970  21.7240
239  B  12.3010  24.6330  22.6860
240  B  12.5650  24.6820  22.9790
241  A  11.2410  22.4680  23.8270
242  A  11.6130  22.7200  24.3640
243  A  12.5150  22.2850  23.9660
244  A  12.9080  21.7910  23.5820
245  A  12.4690  22.6150  23.5850
246  B  12.4300  22.9610  23.0330
247  B  11.9080  22.4800  22.5960
248  B  11.5260  22.2790  22.6570
249  B  11.6030  22.6300  21.6030
250  B  11.0160  22.3460  21.9760
251  A  13.9200  22.3840  17.7860
252  A  13.6180  22.6380  18.8540
253  A  13.2280  22.1370  18.4700
254  A  13.1000  21.2750  18.0760
255  A  12.2370  21.3020  17.9370
256  B  11.6280  21.7560  18.5770
257  B  10.6270  21.4840  19.1770
258  B  10.8760  21.6750  20.2890
259  B  10.6940  22.2380  20.2330
260  B   9.5380  21.6320  20.7320
261  A  10.4890  22.8620  17.7760
262  A  10.2980  22.6710  16.8740
263  A  10.0530  22.9100  17.3170
264  A  10.2000  22.4240  17.8170
265  A  10.7260  21.7810  17.7720
266  B  11.1990  22.0780  19.0950
267  B  11.8450  22.1260  18.6700
268  B  12.1140  21.3890  19.1530
269  B  11.7930  21.1170  18.6750
270  B  11.6300  20.1030  18.8260
271  A  13.4330  19.4990  18.3020
272  A  13.4220  19.5180  19.2450
273  A  12.9850  20.0230  19.4770
274  A  13.5890  20.4690  19.8710
275  A  12.9600  21.2860  20.5830
276  B  12.0180  22.3140  19.9600
277  B  11.3360  22.3070  19.2490
278  B  11.2990  21.9100  19.7220
279  B  10.5990  22.0920  19.4530
280  B  10.6520  23.1420  19.6640
281  A   6.7820  21.4120  21.3920
282  A   6.2800  22.3110  20.5250
283  A   6.3790  22.2610  19.6730
284  A   6.8350  22.3030  19.2280
285  A   7.5680  21.8230  20.9380
286  B   8.1000  21.8430  20.5730
287  B   8.9090  22.0000  20.8660
288  B   8.4620  21.4790  20.6820
289  B   9.2220  20.8190  20.2660
290  B  10.6970  21.2510  20.2280
291  A  10.7960  26.5030  20.1950
292  A  11.2440  26.8050  20.1710
293  A  11.6790  26.6790  20.5220
294  A  12.1370  26.4420  20.0660
295  A  11.6650  26.0780  19.8690
296  B  11.7620  24.4160  20.2590
297  B  12.0520  24.2750  20.5590
298  B  11.8220  24.7090  20.9750
299  B  11.1090  23.8740  21.4550
300  B  11.3010  23.3660  21.8480
301  A  11.6480  19.0790  16.0570
302  A  11.2790  19.3390  16.3330
303  A  11.3150  18.7880  16.9820
304  A  10.7290  19.5660  17.1840
305  A  11.0610  18.8700  17.8500
306  B  11.1840  19.7090  17.3890
307  B  10.4680  20.2210  18.2490
308  B  10.4560  20.2970  19.3390
309  B   9.8910  20.7090  18.8030
310  B   9.7570  20.3930  18.2060
311  A   5.6460  21.5010  19.1040
312  A   5.6310  20.1240  18.4800
313  A   6.5970  20.3030  18.8030
314  A   6.7030  19.8140  19.6110
315  A   7.5060  19.8460  20.3450
316  B   8.0190  20.3750  19.6220
317  B   8.3240  20.8050  19.2810
318  B   8.9730  20.3600  19.5390
319  B   8.8520  20.6300  20.3930
320  B   8.7960  20.2640  21.0110
321  A   9.9860  18.6550  23.1020
322  A   9.7450  19.0590  22.9580
323  A   9.6960  19.0680  22.3260
324  A   8.7480  19.3230  22.1910
325  A   8.6100  18.7750  21.5600
326  B   8.9030  19.7940  21.8920
327  B   8.8240  20.6000  21.7470
328  B   8.9450  21.3780  21.5680
329  B   9.3810  22.3160  21.7840
330  B   8.6810  22.1560  22.3110
331  A  11.8090  22.0070  24.7220
332  A  10.8650  22.5530  24.2240
333  A  11.0680  23.0780  24.0680
334  A  10.3910  23.6880  23.1630
335  A  10.4540  23.6850  23.8170
336  B  11.3710  23.7550  24.0710
337  B  12.1010  23.6580  23.3020
338  B  11.7720  23.4220  23.1220
339  B  11.9250  24.0200  22.6110
340  B  11.7980  23.3360  22.0730
341  A   7.7160  18.3340  17.4030
342  A   7.9930  18.0500  17.9870
343  A   7.9530  17.7430  18.5300
344  A   8.0030  18.5210  18.2020
345  A   7.5420  19.3760  18.2820
346  B   8.4180  20.1780  18.5750
347  B   9.0710  21.3200  18.8000
348  B   9.2800  21.8330  18.8680
349  B   9.4790  21.5820  19.7470
350  B   9.7500  21.2500  19.4550
351  A  11.8850  25.0430  17.3650
352  A  12.4920  24.2800  17.1090
353  A  12.3510  24.8980  18.1910
354  A  13.0640  24.4460  18.9010
355  A  12.3210  24.7150  19.3140
356  B  11.7150  24.3440  19.3550
357  B  12.1450  24.5850  19.9640
358  B  12.3350  23.9030  19.6300
359  B  12.8210  24.4200  20.0510
360  B  12.7480  24.4180  19.8510
361  A  16.2000  24.0510  19.3570
362  A  15.6810  24.7030  19.5870
363  A  15.4280  23.8660  19.9170
364  A  15.0540  23.0830  20.8110
365  A  14.3700  23.3820  20.6090
366  B  14.0100  23.6770  20.8640
367  B  13.3970  24.0530  20.5210
368  B  13.3140  23.8220  20.8620
369  B  13.4620  23.4100  22.4810
370  B  13.1370  22.3540  23.1600
371  A   8.2700  25.5110  19.7590
372  A   7.5360  24.7490  19.5520
373  A   7.7670  23.8120  19.7350
374  A   8.1530  22.9710  19.6860
375  A   7.7320  23.2740  19.8270
376  B   8.3790  23.7150  19.5520
377  B   8.6580  23.5470  19.8090
378  B   8.7730  23.1180  19.1010
379  B   9.0020  22.7390  20.0200
380  B   9.5910  22.2860  20.1030
381  A  15.7490  20.7880  22.2910
382  A  15.4320  20.9600  22.0680
383  A  15.2420  21.8300  21.6360
384  A  14.1590  22.3080  21.3300
385  A  13.4700  22.1550  20.7970
386  B  11.9550  22.1270  21.1470
387  B  11.4290  23.4980  20.9930
388  B  12.0200  22.9110  20.9860
389  B  11.2270  22.4410  20.5130
390  B  11.0000  22.3560  21.0440
391  A  14.1250  24.8390  21.5660
392  A  14.3790  24.9810  22.0070
393  A  13.6290  25.2650  21.9700
394  A  13.1310  24.5720  21.3920
395  A  13.2540  24.4600  21.9600
396  B  12.7130  24.2660  22.4970
397  B  12.6560  22.9710  22.2780
398  B  12.3510  22.9890  22.2180
399  B  12.2760  23.4190  20.9800
400  B  11.9920  23.5190  21.5890
401  A   7.0690  23.2050  23.0800
402  A   6.8460  22.4350  23.5080
403  A   7.4200  22.4170  23.2950
404  A   8.3480  22.5080  23.2140
405  A   8.1910  22.5870  22.8550
406  B   8.9040  22.5820  22.2370
407  B   9.7000  22.1620  21.5450
408  B  10.0610  22.4420  20.8670
409  B  10.4980  22.2780  20.9410
410  B  10.7380  23.7450  20.7770
411  A  11.0560  17.6590  18.0320
412  A  11.7760  17.4700  17.1910
413  A  12.1720  18.2430  17.4710
414  A  11.5450  18.4900  17.9740
415  A  11.1850  19.2140  18.3000
416  B  10.1350  20.0870  18.9820
417  B   9.7770  19.8750  18.2070
418  B  10.4330  19.6210  18.8150
419  B   9.5870  19.3690  19.8900
420  B   9.5590  18.8440  19.3620
421  A   8.9780  24.3610  19.8590
422  A   9.1000  24.8490  19.7720
423  A   8.9390  24.4900  20.3510
424  A   9.3120  24.5330  20.5230
425  A   8.6770  23.9400  20.7980
426  B   9.0170  22.9770  20.5560
427  B   8.9790  22.4100  20.6930
428  B   9.4790  23.1490  21.0910
429  B   8.9310  23.5740  20.9880
430  B   9.5880  23.7330  20.6910
431  A   8.0420  20.9370  17.7310
432  A   8.3700  20.2980  17.1230
433  A   9.0280  20.0180  16.3970
434  A   8.7710  20.6360  16.1170
435  A   9.1380  20.8530  16.7850
436  B  10.1910  20.7710  17.5560
437  B  10.2960  20.9270  17.9720
438  B  10.5850  20.8800  19.7380
439  B   9.8520  21.1450  20.1320
440  B  10.5090  20.8170  21.1210
441  A  10.6690  23.8350  15.9390
442  A  11.0670  22.9800  17.0510
443  A  10.8990  23.4350  17.4890
444  A  10.9210  23.8220  17.6290
445  A  10.7890  23.4370  18.4110
446  B  10.3260  22.5120  19.4630
447  B  10.4340  23.3720  20.1520
448  B  11.1130  23.7180  20.5790
449  B  10.7910  23.0580  21.0570
450  B  10.7890  23.1660  22.1350
451  A   8.5840  21.3010  16.5280
452  A   8.6720  22.0560  16.2850
453  A   9.2620  23.1290  17.2610
454  A   9.1110  22.1430  17.6270
455  A   9.4300  21.8810  18.1810
456  B  10.4860  22.1940  18.5300
457  B  10.9860  22.1080  18.5070
458  B  10.9850  22.7050  19.1210
459  B  11.5310  23.0390  19.0930
460  B  12.1300  23.6160  20.2910
461  A  10.6260  18.5730  20.0870
462  A  10.1760  18.3390  20.7290
463  A  10.4050  17.2800  20.2900
464  A  10.5610  18.6510  20.6770
465  A  10.8120  19.3890  19.9000
466  B   9.6290  19.3450  20.5310
467  B   9.5360  19.5910  21.2180
468  B   9.2520  19.9360  20.3310
469  B   9.6650  19.7870  19.5140
470  B  10.3290  19.9370  19.6750
471  A  13.4110  23.9000  24.9820
472  A  12.9800  22.8790  24.9760
473  A  13.1560  23.3440  25.1270
474  A  13.3780  23.6300  24.2560
475  A  13.1410  22.7950  24.1820
476  B  13.2100  22.8430  23.4630
477  B  12.7290  22.2980  22.7950
478  B  11.9080  21.6940  23.3720
479  B  12.1360  21.2500  23.3920
480  B  12.2030  21.1260  22.9870
481  A  13.1550  20.6470  20.9490
482  A  13.7340  20.3110  21.2340
483  A  14.2030  20.4610  20.2220
484  A  13.9690  21.8450  20.1650
485  A  13.4690  21.9270  20.1460
486  B  12.4440  21.4600  19.6250
487  B  11.2790  21.2940  19.3840
488  B  10.1470  21.6710  19.7670
489  B   9.6900  22.1290  19.3780
490  B   8.9590  22.3190  19.1290
491  A   7.3090  20.4570  18.8160
492  A   7.4990  19.2490  18.6680
493  A   8.3630  19.0370  18.8150
494  A   8.1570  18.3440  19.4700
495  A   8.7130  18.4390  19.1770
496  B   8.9880  19.0320  19.6390
497  B   9.7350  19.6740  18.9490
498  B  10.1650  18.8700  18.7740
499  B   9.6030  19.1160  18.8520
500  B   9.7650  18.2100  18.8690
501  A   7.9000  21.9820  15.8150
502  A   7.4090  22.7130  16.0450
503  A   7.1900  22.9760  16.4320
504  A   7.8630  22.1250  16.6630
505  A   7.9590  21.3070  16.7390
506  B   7.7770  21.4520  17.7790
507  B   8.1020  20.9040  18.5600
508  B   7.9290  21.4280  18.7150
509  B   7.9900  21.1230  19.2970
510  B   8.6600  21.6390  19.4510
511  A  12.3050  19.4620  19.2000
512  A  11.7520  18.9770  18.6120
513  A  11.5010  19.3930  18.2150
514  A  11.4330  19.1310  18.9280
515  A  10.8950  19.0380  19.3590
516  B  11.0730  19.9720  20.5670
517  B  11.0030  20.6540  20.8860
518  B  11.9880  20.8500  20.9290
519  B  11.7260  21.2020  20.0580
520  B  11.5690  20.2230  20.5180
521  A   9.7390  17.2180  15.3960
522  A   9.9540  18.5110  15.4360
523  A  10.9450  18.6450  16.1980
524  A  10.2610  19.1330  16.4530
525  A   9.6880  19.6300  17.4540
526  B   9.3930  19.7980  18.6590
527  B   8.6540  20.4970  18.9230
528  B   8.4230  20.8320  20.1170
529  B   8.0810  20.8660  21.0360
530  B   8.3590  21.0140  21.3060
531  A  12.8780  18.6630  16.9250
532  A  12.7920  19.5250  16.7630
533  A  12.2940  20.0650  17.1500
534  A  11.9330  19.4670  17.9310
535  A  11.3280  19.8890  17.7130
536  B  10.9920  20.6320  17.9720
537  B  10.9390  19.8960  18.4270
538  B  11.1990  20.3070  18.6620
539  B  11.3310  20.7650  19.4030
540  B  11.9610  20.0580  18.6610
541  A   6.6490  22.1390  18.3850
542  A   7.1120  23.1250  18.4610
543  A   7.7930  22.9930  17.6670
544  A   7.2690  22.9050  17.4890
545  A   7.1240  22.0460  18.0280
546  B   7.7590  21.6210  18.3290
547  B   8.9030  21.5610  18.3590
548  B   8.4300  22.8960  18.6830
549  B   8.6700  22.2460  19.2210
550  B   8.0970  21.8670  18.9260
551  A  12.3890  19.3010  23.7450
552  A  11.7380  20.3150  23.9100
553  A  12.0080  20.2960  22.5920
554  A  11.2220  20.3600  22.0730
555  A  11.2420  20.3150  21.3580
556  B  11.0250  19.6670  21.1260
557  B  10.5650  19.9070  20.9660
558  B   9.9980  20.0580  21.0780
559  B   9.9770  20.3520  20.2020
560  B   9.6520  19.9130  19.6250
561  A   9.7290  18.7710  23.8300
562  A   9.1150  19.4070  23.2620
563  A   9.3690  20.2200  23.1290
564  A   9.8560  20.9190  22.9020
565  A   9.7960  20.4610  22.3930
566  B   9.3640  20.9040  22.3520
567  B   9.7550  20.9740  21.4060
568  B   9.1600  21.0120  21.0580
569  B  10.4430  21.0170  21.9840
570  B  10.3190  20.8250  21.8780
571  A   9.0940  24.0630  17.4550
572  A   9.1310  23.8040  18.0890
573  A   9.1950  23.6260  18.5780
574  A   9.8720  23.8130  19.1280
575  A   9.6290  23.4270  19.5910
576  B   9.1520  23.5900  19.8330
577  B   8.4830  22.8310  21.0070
578  B   8.1030  22.5240  21.4460
579  B   8.7980  23.0170  21.3400
580  B   9.3460  22.8540  21.9910
581  A   6.7560  20.6580  21.7210
582  A   7.3090  19.8810  21.6620
583  A   7.4050  20.6500  21.9290
584  A   7.3230  20.7400  21.2290
585  A   7.4020  19.6180  21.1680
586  B   7.8730  20.6130  20.4440
587  B   8.0830  20.1750  21.1040
588  B   9.1000  19.9410  21.4490
589  B   8.7060  19.5730  20.9770
590  B   9.3630  20.4570  21.3930
591  A  14.9410  17.7500  20.1880
592  A  15.0690  17.5730  19.1320
593  A  14.4840  18.5320  19.3530
594  A  13.6170  18.6020  19.5880
595  A  13.5020  19.7840  20.1850
596  B  12.3570  20.0770  20.8470
597  B  11.9300  20.2300  20.7160
598  B  11.2420  20.7090  20.2770
599  B  11.3200  21.6130  20.6710
600  B  10.1930  22.1980  20.1590
601  A   9.5890  15.9750  17.1890
602  A   8.9360  16.6350  17.7930
603  A   9.0520  16.9910  18.0380
604  A   8.8520  17.6650  18.4770
605  A   9.0600  18.2150  19.7010
606  B   9.0670  18.6130  20.3800
607  B   8.6360  18.8220  20.5200
608  B   8.0240  19.0550  20.2680
609  B   7.7020  19.2430  21.0110
610  B   8.2890  19.3920  21.2500
