ITEM: TIMESTEP
1
ITEM: NUMBER OF ATOMS
530
ITEM: BOX BOUNDS pp pp pp
12.000000 37.000000
 2.000000 27.000000
 0.000000 25.000000
ITEM: ATOMS id element x y z
  1  A  26.7580  13.6530  6.8330
  2  A  26.0210  14.1100  6.5770
  3  A  26.1240  13.6950  7.4010
  4  A  27.2090  13.4930  7.3140
  5  A  27.7890  13.8540  7.5260
  6  B  29.2260  14.0540  7.2130
  7  B  30.2060  14.1200  6.6600
  8  B  29.1110  14.1560  6.6390
  9  B  29.3200  13.3250  7.3470
 10  B  29.5500  13.2390  6.7950
 11  A  28.8920  11.2320  6.7140
 12  A  28.9870  10.3650  6.8150
 13  A  29.3730  10.6170  6.6620
 14  A  29.3950  11.6370  7.3680
 15  A  29.3100  12.6790  7.8050
 16  B  30.1450  12.2920  6.8680
 17  B  29.7790  12.2730  7.0030
 18  B  30.4090  13.1290  7.6220
 19  B  30.6360  13.1950  7.3670
 20  B  31.2490  13.1150  8.1460
 21  A  30.4660  12.6380  4.1370
 22  A  29.5030  13.0240  4.2360
 23  A  29.3370  11.9220  4.3930
 24  A  29.5460  11.6700  4.1250
 25  A  29.8450  12.0710  4.9640
 26  B  30.4400  12.4350  5.2660
 27  B  29.6800  13.1820  5.4390
 28  B  30.3760  12.3400  5.8290
 29  B  31.1710  12.1660  5.5620
 30  B  31.1950  12.8220  5.8560
 31  A  32.5310  10.0690  7.6170
 32  A  32.6170  10.5590  7.6220
 33  A  32.9800  11.1230  8.0240
 34  A  33.0250  12.0770  8.6620
 35  A  32.8030  13.1470  8.8650
 36  B  32.1180  13.1060  7.9740
 37  B  32.8600  13.8790  8.1190
 38  B  33.4010  14.0290  7.7850
 39  B  32.4960  14.6970  7.7430
 40  B  32.7930  14.1860  7.2260
 41  A  34.3390  12.8350  8.5230
 42  A  35.0500  12.7180  8.8010
 43  A  35.8910  13.1100  7.9430
 44  A  35.3220  12.7750  8.1710
 45  A  35.0180  13.5080  7.9910
 46  B  33.8280  14.8000  7.3180
 47  B  33.6230  15.3770  7.4910
 48  B  33.7920  15.3770  7.0730
 49  B  33.8180  16.1490  6.5670
 50  B  34.2050  16.2400  6.9370
 51  A  34.4880  17.2180  11.6070
 52  A  33.9020  17.1090  10.5240
 53  A  33.7130  16.9860  9.7530
 54  A  32.9470  17.1020  8.7120
 55  A  32.9190  15.9830  8.3420
 56  B  33.2460  16.4680  7.5190
 57  B  32.3590  16.5040  7.6240
 58  B  31.9980  15.8370  7.4980
 59  B  32.9000  15.5950  7.7100
 60  B  31.9940  15.0990  7.7120
 61  A  31.8800  17.7300  4.5990
 62  A  32.1480  17.2410  4.2120
 63  A  32.6190  16.3280  5.0320
 64  A  33.1940  15.8690  5.0420
 65  A  33.8790  15.5710  6.3360
 66  B  33.5590  14.7700  5.9340
 67  B  32.7190  15.0080  6.0860
 68  B  32.4830  13.9670  6.6470
 69  B  32.7610  14.2660  5.5950
 70  B  32.3050  14.5930  5.2560
 71  A  29.9880  11.7260  9.5270
 72  A  31.1250  11.8910  9.0790
 73  A  31.0410  12.1500  8.7900
 74  A  30.5710  12.3560  9.1160
 75  A  29.9020  12.1610  9.4250
 76  B  30.0280  12.3640  7.9320
 77  B  30.0850  11.9750  7.5000
 78  B  29.6380  12.8880  6.2820
 79  B  29.9940  12.7340  5.8530
 80  B  30.4910  11.7310  5.3250
 81  A  33.1410  15.6650  2.4170
 82  A  33.7090  15.5050  1.7310
 83  A  34.0300  15.6660  2.3820
 84  A  34.6220  15.1490  3.6340
 85  A  34.4070  15.4600  4.8040
 86  B  34.3260  14.6600  4.0670
 87  B  34.8680  13.9230  3.8610
 88  B  34.2140  13.5680  3.8680
 89  B  33.5030  13.8700  4.3630
 90  B  33.3530  13.2710  3.8310
 91  A  30.8630  15.9140  10.8370
 92  A  31.2850  14.9980  10.7590
 93  A  31.3320  14.5070  10.3750
 94  A  32.0840  15.3540  9.3550
 95  A  31.7360  14.8550  8.7750
 96  B  31.1100  14.8640  7.9940
 97  B  31.8080  14.4420  7.7660
 98  B  31.7750  13.9710  6.6280
 99  B  31.4780  13.0140  7.0120
100  B  30.9490  13.4710  6.5310
101  A  28.8880  15.2630  6.5290
102  A  29.4950  15.2480  5.2500
103  A  29.3220  16.0670  5.1840
104  A  29.9760  15.9110  5.5440
105  A  29.9820  14.9930  4.8970
106  B  30.6950  14.3810  4.9660
107  B  30.9940  14.0400  5.1440
108  B  31.3330  13.6110  5.4340
109  B  32.1830  14.5840  6.1250
110  B  32.5310  14.7430  6.9730
111  A  30.1390  18.8480  6.9590
112  A  31.1560  17.8240  6.7380
113  A  31.9420  17.0900  7.3440
114  A  32.2090  16.7340  6.9000
115  A  31.7860  16.1860  7.0430
116  B  32.0570  15.4830  7.0480
117  B  32.9660  15.8650  6.2240
118  B  33.2750  15.7090  5.7200
119  B  33.5170  15.0620  5.7860
120  B  32.6410  14.4850  6.4060
121  A  35.5850  14.8030  8.8100
122  A  35.0350  15.7080  9.3690
123  A  34.4190  15.2730  9.1110
124  A  33.0760  14.5790  8.8440
125  A  31.9670  14.7130  8.5130
126  B  31.7050  14.9950  7.6160
127  B  31.3810  14.2860  7.4000
128  B  31.1770  15.1050  6.7840
129  B  30.5250  15.0400  7.4860
130  B  31.3150  14.2430  8.2370
131  A  33.1160  13.7380  11.6590
132  A  33.3270  13.6420  11.2420
133  A  32.2880  13.8740  10.1450
134  A  31.9160  14.0560  9.5440
135  A  31.6420  13.3970  9.6980
136  B  31.6270  13.6760  8.9630
137  B  31.5820  13.3030  8.6830
138  B  32.0480  13.3510  8.4790
139  B  32.3750  12.9510  7.1460
140  B  32.4340  13.2630  7.2860
141  A  33.2680   9.7990  7.4410
142  A  31.4980  10.6040  7.8810
143  A  31.8260  11.4160  7.4300
144  A  32.3900  11.6710  7.6010
145  A  33.1050  11.8940  7.6850
146  B  32.6510  12.1570  6.3000
147  B  32.3660  11.8480  5.9940
148  B  31.9510  12.6960  6.2430
149  B  32.8810  12.5520  6.0370
150  B  32.9070  12.4650  6.7970
151  A  26.1870  11.9600  7.2410
152  A  26.7820  12.6270  7.3220
153  A  27.2260  13.8220  6.6700
154  A  27.8240  13.5580  7.0230
155  A  29.1170  12.4970  6.2560
156  B  29.7060  13.4380  5.7400
157  B  30.3410  13.0360  5.3740
158  B  30.4600  13.7170  5.9810
159  B  31.2110  14.2240  5.9560
160  B  31.7870  14.2110  6.2650
161  A  29.6000  10.3060  6.3690
162  A  29.5880   9.6380  6.3500
163  A  30.4730   9.7300  6.5790
164  A  30.4350  10.1990  6.7490
165  A  31.1090  11.2460  7.0590
166  B  31.3210  12.2120  7.2440
167  B  30.6850  12.4620  7.2590
168  B  31.1650  11.6790  7.6450
169  B  30.7560  11.9290  7.3460
170  B  30.4330  11.8180  6.2090
171  A  34.7390  11.4630  7.1300
172  A  34.4160  12.0310  7.5860
173  A  35.5050  12.6240  7.1680
174  A  36.5020  12.3590  6.1730
175  A  35.7540  12.7580  6.4880
176  B  34.5380  12.7520  5.6850
177  B  34.9000  13.6310  5.8700
178  B  34.9680  14.1120  5.2300
179  B  34.1260  13.9760  5.9010
180  B  33.4730  14.1270  6.1860
181  A  34.4040  13.0490  1.2640
182  A  34.1210  13.6350  1.4990
183  A  34.0660  14.3170  1.8760
184  A  33.3340  13.6390  2.8840
185  A  32.7910  13.9110  3.3900
186  B  33.0690  14.4170  4.0540
187  B  33.6120  14.2240  5.4330
188  B  34.7050  14.7920  4.8620
189  B  34.3660  14.6960  5.4550
190  B  34.3010  14.0400  5.0710
191  A  31.8880  18.0460  5.3120
192  A  31.3140  18.0610  5.8030
193  A  32.1680  17.8770  6.8190
194  A  31.5710  17.4390  6.3080
195  A  31.5020  16.8530  6.6320
196  B  31.4670  15.3520  7.1590
197  B  30.8280  14.5930  6.9840
198  B  30.9290  13.7430  7.3760
199  B  31.2810  14.1950  6.6360
200  B  30.1570  13.7090  7.1870
201  A  31.6090  11.2740  1.7600
202  A  31.4270  11.5930  2.0700
203  A  31.5590  12.1470  3.2560
204  A  31.8760  12.5740  3.3990
205  A  31.2990  12.9470  3.4870
206  B  31.1630  13.0380  4.1700
207  B  31.2150  12.9670  5.0670
208  B  30.7360  13.1790  4.7800
209  B  30.2990  13.7400  5.1810
210  B  30.6120  13.7390  4.6300
211  A  33.7190  12.8870  10.1780
212  A  33.7760  13.1660  10.6370
213  A  33.6600  13.0760  9.6000
214  A  34.0670  13.8040  9.7710
215  A  33.7750  13.9760  9.5980
216  B  33.1850  14.3340  8.4110
217  B  32.4600  13.6680  7.7090
218  B  31.4680  13.4090  7.5270
219  B  31.7340  12.5740  7.4660
220  B  30.5310  11.6390  7.0070
221  A  34.7250  12.5740  2.1210
222  A  34.2330  13.0800  2.8380
223  A  33.9300  12.9050  3.1810
224  A  33.9670  12.5580  2.5350
225  A  34.3490  11.9840  3.1690
226  B  33.9230  12.5920  4.0580
227  B  33.7970  11.5880  4.2250
228  B  33.0570  12.1310  4.7440
229  B  32.6000  13.0020  4.5230
230  B  31.9380  13.0870  4.8610
231  A  35.1340  11.3710  3.8400
232  A  34.6260  10.7540  3.3920
233  A  33.3030  10.6870  3.6590
234  A  32.8590  10.3720  4.1670
235  A  32.0880  10.3190  4.6850
236  B  32.2880  10.9400  5.0790
237  B  32.2750  11.7590  5.1140
238  B  32.3730  12.6730  5.1740
239  B  32.3280  12.4540  5.4690
240  B  31.7440  12.2600  5.3300
241  A  31.9040  15.2440  4.5490
242  A  31.7530  14.4370  4.0890
243  A  31.2540  14.4350  3.4500
244  A  31.2240  13.7840  3.6750
245  A  32.0130  14.1040  3.4890
246  B  32.4080  14.1040  4.5910
247  B  32.0000  14.3540  5.3670
248  B  32.6450  13.6450  5.3620
249  B  32.3180  13.3840  5.8320
250  B  32.8180  13.4710  6.2380
251  A  32.7320   8.5910  7.0790
252  A  32.7120   9.0490  6.2690
253  A  32.3780   9.9810  5.2080
254  A  31.9230  10.6860  5.4160
255  A  32.5860  10.8810  5.9210
256  B  32.6560  11.3150  5.2360
257  B  32.5780  11.6770  4.6140
258  B  33.3650  12.7960  4.6460
259  B  33.0750  13.0470  5.1370
260  B  32.8490  12.9870  6.5460
261  A  32.0700  15.9240  5.6560
262  A  32.5000  16.2230  5.7520
263  A  32.7490  16.4970  5.7830
264  A  32.3630  16.5110  6.3630
265  A  32.7950  16.3980  6.8070
266  B  33.0720  15.4120  6.5370
267  B  32.5400  15.9740  6.4280
268  B  31.8010  14.9380  6.4240
269  B  31.9130  15.4860  6.6940
270  B  32.6870  15.5400  7.3020
271  A  34.9800  11.0780  2.1340
272  A  35.1130  10.8820  2.6350
273  A  35.6530  11.2650  2.7930
274  A  35.1260  11.7840  2.2700
275  A  35.3430  11.9590  2.8540
276  B  34.8490  12.6490  3.4650
277  B  34.5980  12.2450  3.6670
278  B  34.6140  12.8310  4.3410
279  B  34.6670  13.8370  4.7470
280  B  35.3560  14.3410  4.5470
281  A  31.7970  12.2200  9.0380
282  A  32.3030  12.5830  8.7150
283  A  32.5590  12.3990  8.2480
284  A  32.8840  13.0350  8.0470
285  A  32.3420  12.0300  8.1930
286  B  31.8660  12.0230  7.3340
287  B  32.2140  11.7600  6.1750
288  B  31.8540  12.3890  6.5500
289  B  31.3250  13.1840  6.1440
290  B  31.9590  13.8050  4.9300
291  A  28.3280  13.3540  8.4790
292  A  28.1910  13.9400  8.0920
293  A  28.8830  14.4440  8.7800
294  A  28.8430  13.7220  8.8700
295  A  29.5170  13.8180  8.6470
296  B  30.0140  13.4170  7.9880
297  B  30.2150  13.3550  8.1970
298  B  29.9530  13.8240  8.9180
299  B  30.5320  13.4220  9.0010
300  B  30.2930  14.0950  9.3690
301  A  36.9460  16.5260  4.6320
302  A  36.6260  15.9050  4.6710
303  A  36.4960  16.4220  5.3080
304  A  35.9030  15.9920  5.6470
305  A  35.1860  15.4910  5.2200
306  B  35.1820  13.4180  5.4580
307  B  34.5990  13.2100  4.9730
308  B  33.9620  12.7260  5.3470
309  B  34.5830  12.3710  5.0880
310  B  34.2980  13.1260  4.7110
311  A  36.3480  14.0880  7.5600
312  A  35.7240  13.9850  8.4900
313  A  35.3330  13.9040  9.0500
314  A  35.0570  14.5130  9.2550
315  A  34.2850  14.2180  8.0770
316  B  33.2680  14.0860  7.6120
317  B  33.1760  14.2520  6.8810
318  B  33.7340  13.4660  6.4170
319  B  34.5560  12.9940  7.1010
320  B  34.2850  13.1380  7.4120
321  A  33.9700  10.5870  5.4710
322  A  32.7850  10.4910  5.7960
323  A  33.3550  11.2740  6.2990
324  A  32.5260  11.2370  6.5220
325  A  32.8010  11.5890  7.1970
326  B  32.0280  12.3300  7.0220
327  B  32.6240  12.3490  7.3570
328  B  33.5590  11.8780  6.7780
329  B  33.3560  12.4840  7.3790
330  B  33.7000  13.0490  7.1790
331  A  27.4460  13.9560  9.6070
332  A  27.6910  13.6990  10.1500
333  A  28.6070  13.1890  9.3120
334  A  28.6380  13.3470  8.1840
335  A  29.2040  13.3340  8.2050
336  B  29.7130  13.5060  7.4530
337  B  30.1780  13.4100  7.0460
338  B  29.9540  14.2710  7.9960
339  B  29.0930  14.3890  7.5300
340  B  29.8620  14.4540  7.0910
341  A  27.9710  12.3420  5.2280
342  A  29.0620  12.4870  5.4010
343  A  29.5620  12.4000  5.3600
344  A  29.6010  11.9830  6.2170
345  A  31.3610  12.2790  5.9810
346  B  31.2150  12.3580  6.5080
347  B  30.8210  12.9100  5.8190
348  B  31.7830  13.1500  5.4020
349  B  31.8960  13.5040  5.8680
350  B  32.4730  13.4670  6.4530
351  A  33.1110  10.0710  1.3300
352  A  33.0670  10.4430  1.4590
353  A  32.7400  11.2490  1.9700
354  A  32.4700  11.5430  1.7860
355  A  32.2390  11.6990  2.8840
356  B  32.1880  11.7850  3.5270
357  B  33.0620  12.3660  4.1570
358  B  32.3760  12.1870  4.6230
359  B  32.1410  12.4730  4.2760
360  B  32.5980  12.4510  3.7690
361  A  35.8880  15.6860  6.7070
362  A  36.3790  15.2110  7.0610
363  A  35.9940  14.6590  7.4170
364  A  35.5800  15.0020  6.8150
365  A  35.3970  14.3950  6.2280
366  B  34.6790  14.5860  5.7400
367  B  34.5480  14.5830  6.8530
368  B  34.2920  13.9430  6.8400
369  B  34.4610  13.6590  6.6660
370  B  34.5640  12.8630  6.4680
371  A  35.4690  14.1640  2.1510
372  A  36.0700  13.8610  1.8380
373  A  35.7100  13.4840  3.5690
374  A  35.7690  14.5230  3.2990
375  A  35.6610  14.6550  4.2860
376  B  35.2340  14.3340  3.5620
377  B  34.7600  14.4760  4.2470
378  B  35.1620  13.7530  4.5420
379  B  35.1100  13.2290  4.9520
380  B  35.2110  12.5080  5.1680
381  A  37.0590  12.9660  3.9610
382  A  35.8100  12.8130  3.4040
383  A  35.9350  12.3800  2.7340
384  A  36.0470  11.8180  3.0220
385  A  36.0690  11.8830  3.9150
386  B  35.3670  12.1910  4.7090
387  B  35.2390  12.7690  4.3970
388  B  35.1890  13.3940  4.1030
389  B  35.8700  13.4660  4.8640
390  B  35.4620  14.7050  5.5980
391  A  36.1720  11.3810  6.4290
392  A  36.4260  11.6910  6.0430
393  A  36.4830  11.8410  5.5540
394  A  35.1360  11.3890  5.4680
395  A  35.1180  12.1840  5.9650
396  B  34.4670  11.4830  5.8940
397  B  33.9950  12.2890  5.6660
398  B  32.9630  11.6920  5.5580
399  B  33.6870  11.9300  5.3370
400  B  33.5550  11.9560  5.8080
401  A  34.3620  10.9510  7.3040
402  A  33.8560  10.4470  6.8980
403  A  34.1090  11.2080  6.6870
404  A  34.5150  11.3920  6.8910
405  A  33.6030  11.6260  7.4580
406  B  33.7820  12.3990  6.7570
407  B  34.0420  12.0010  6.1940
408  B  33.2230  12.9440  6.1510
409  B  34.0850  12.9820  6.0420
410  B  33.7210  13.2960  4.9520
411  A  33.3520  12.0960  3.3360
412  A  33.4790  11.6430  3.4550
413  A  32.9590  11.7620  3.9590
414  A  33.1780  11.3380  3.7640
415  A  32.4240  11.0680  3.9270
416  B  33.1880  11.3080  4.9150
417  B  33.2790  11.7080  4.6830
418  B  33.6800  12.1410  4.9180
419  B  33.7400  13.3020  5.4140
420  B  33.3980  13.6210  5.7890
421  A  32.3700  16.5090  10.1000
422  A  31.9350  16.3360  9.7280
423  A  31.0720  16.0150  9.0800
424  A  31.6780  15.6770  8.8910
425  A  32.8450  15.4210  8.3150
426  B  33.3120  14.9790  8.0720
427  B  33.3110  15.7150  7.2010
428  B  33.8710  14.9320  6.5110
429  B  33.0190  14.9330  6.5160
430  B  33.0290  14.8700  6.9430
431  A  29.3860  15.2550  9.4310
432  A  30.5140  15.7800  9.8110
433  A  30.9940  15.4630  9.3990
434  A  31.4000  15.2690  9.5470
435  A  30.2400  15.4400  9.3630
436  B  29.8900  14.3400  8.7500
437  B  30.1490  14.3350  8.1690
438  B  30.5350  13.8510  8.1150
439  B  30.5380  14.2630  8.3990
440  B  30.8700  13.8260  8.9420
441  A  27.0170  15.6980  5.7460
442  A  26.4440  15.2330  5.2860
443  A  27.2780  14.8070  6.1870
444  A  27.8700  15.0190  5.9730
445  A  28.9190  14.8130  6.1630
446  B  29.5450  13.6260  6.5100
447  B  28.9780  14.0800  6.2270
448  B  28.4230  14.5990  6.6670
449  B  28.5930  14.6110  6.9990
450  B  28.5750  14.0940  6.9710
451  A  32.4820  12.8140  1.6310
452  A  33.1110  12.0870  1.7990
453  A  32.7250  12.2010  1.9510
454  A  33.5140  12.3780  2.8840
455  A  33.3130  12.9960  3.1490
456  B  33.8120  13.1830  4.1690
457  B  33.9100  12.3230  4.5180
458  B  34.6270  12.3820  4.7580
459  B  34.8130  12.0450  4.1020
460  B  35.0600  12.0120  4.5170
461  A  30.4640  16.6460  4.9880
462  A  30.7410  16.1150  4.6390
463  A  31.2500  15.4700  5.6720
464  A  31.5540  15.0090  5.9370
465  A  30.9360  14.6430  5.9100
466  B  30.3710  14.2810  5.5520
467  B  29.9590  13.9850  5.9950
468  B  30.3700  14.3050  6.3750
469  B  30.8380  13.6460  5.7870
470  B  30.5820  13.0450  6.5490
471  A  32.8490  13.0270  3.5800
472  A  32.5430  13.0620  3.3380
473  A  32.4090  13.0670  2.6840
474  A  31.8850  13.1850  2.7170
475  A  31.6360  13.1170  3.4960
476  B  32.1860  12.9890  3.9530
477  B  31.6680  12.8890  4.3530
478  B  32.7980  13.5510  4.5190
479  B  33.4050  14.1550  4.8250
480  B  32.9290  13.8850  5.2620
481  A  28.7470  17.8380  6.2080
482  A  29.2600  17.5860  7.2890
483  A  28.5920  16.8760  7.6290
484  A  28.5590  16.4380  7.9020
485  A  29.5020  15.9570  7.6440
486  B  30.0530  14.8190  8.1580
487  B  30.7640  14.5050  7.6340
488  B  31.1030  13.8560  6.5760
489  B  32.0700  14.0060  7.3950
490  B  31.9220  14.0050  8.1310
491  A  36.1310  15.9890  2.7160
492  A  35.3870  15.5750  2.6230
493  A  35.0090  16.0950  3.1430
494  A  35.2480  15.2700  3.3380
495  A  34.5200  15.4750  3.7010
496  B  33.7920  14.4080  4.1610
497  B  34.1560  13.7910  4.4360
498  B  34.0860  14.6710  4.9120
499  B  33.6220  15.0660  5.0660
500  B  33.7130  14.9840  4.5360
501  A  28.6560  11.0830  8.5230
502  A  29.0920  11.1060  9.4040
503  A  29.5770  11.2130  8.7030
504  A  30.2420  10.9570  8.8570
505  A  30.9400  11.6910  8.5100
506  B  31.5550  12.3900  8.3750
507  B  31.4140  13.6760  8.2050
508  B  30.8860  12.8430  8.3320
509  B  30.7350  12.2490  8.0540
510  B  30.4650  13.1340  8.4470
511  A  28.8910  11.9050  8.4720
512  A  29.0770  11.9620  8.0880
513  A  29.6320  10.8420  8.0260
514  A  29.3390  11.5760  8.3660
515  A  30.1510  11.0110  7.9750
516  B  30.1470  11.6490  8.3720
517  B  29.9280  12.5970  8.3740
518  B  29.7060  12.8860  7.2410
519  B  30.6590  12.5300  6.7320
520  B  30.4440  12.1790  6.3560
521  A  35.7680  13.6060  8.1450
522  A  35.9630  14.7350  8.4190
523  A  36.3790  14.4110  8.9690
524  A  35.5510  14.3260  8.1940
525  A  34.8770  13.9540  7.7800
526  B  34.2350  14.3030  7.4620
527  B  33.6920  14.3230  7.1330
528  B  33.4060  13.3800  6.7370
529  B  33.2140  13.3660  7.3820
530  B  32.3590  13.9910  7.1140
